ANIMSTEPS 2
CRYSTAL
PRIMVEC 1
 3.00000000 0.00000000 0.00000000
 0.00000000 3.00000000 0.00000000
 0.00000000 0.00000000 3.00000000
PRIMCOORD 1
1 1
C 0.00000000 0.00000000 0.00000000
PRIMVEC 2
 3.10000000 0.00000000 0.00000000
 0.00000000 3.10000000 0.00000000
 0.00000000 0.00000000 3.10000000
PRIMCOORD 2
1 1
C 0.10000000 0.10000000 0.10000000
