BEGIN_INFO
  Fermi Energy: 5.000000
END_INFO
BEGIN_BLOCK_BANDGRID_3D
band_energies
BEGIN_BANDGRID_3D_fermi
1
2 2 2
0.00000000 0.00000000 0.00000000
1.00000000 0.00000000 0.00000000
0.00000000 1.00000000 0.00000000
0.00000000 0.00000000 1.00000000
BAND: 1
4.8 5.1
5.2 4.9
5.3 5.4
4.7 5.0
END_BANDGRID_3D
END_BLOCK_BANDGRID_3D
