CRYSTAL
PRIMVEC
 2.00000000 0.00000000 0.00000000
 0.00000000 2.00000000 0.00000000
 0.00000000 0.00000000 2.00000000
CONVVEC
 4.00000000 0.00000000 0.00000000
 0.00000000 4.00000000 0.00000000
 0.00000000 0.00000000 4.00000000
PRIMCOORD
1 1
Na 0.00000000 0.00000000 0.00000000
