CRYSTAL
# Primitive lattice vectors in Angstrom
PRIMVEC
 3.00000000 0.00000000 0.00000000
 0.00000000 3.00000000 0.00000000
 0.00000000 0.00000000 3.00000000
PRIMCOORD
2 1
Si 0.00000000 0.00000000 0.00000000
Si 1.50000000 1.50000000 1.50000000
