CRYSTAL
PRIMVEC
 4.00000000 0.00000000 0.00000000
 0.00000000 4.00000000 0.00000000
 0.00000000 0.00000000 4.00000000
PRIMCOORD
2 1
8 0.00000000 0.00000000 0.00000000 0.10000000 0.00000000 0.00000000
1 0.00000000 0.00000000 1.00000000 0.00000000 0.20000000 0.00000000
