SLAB
PRIMVEC
 2.00000000 0.00000000 0.00000000
 0.00000000 2.00000000 0.00000000
 0.00000000 0.00000000 8.00000000
PRIMCOORD
1 1
He 0.00000000 0.00000000 0.00000000
BEGIN_BLOCK_DATAGRID_2D
density_2d
BEGIN_DATAGRID_2D_density
2 3
0.00000000 0.00000000 0.00000000
2.00000000 0.00000000 0.00000000
0.00000000 2.00000000 0.00000000
0.0 1.0 2.0
3.0 4.0 5.0
END_DATAGRID_2D
END_BLOCK_DATAGRID_2D
