CRYSTAL
PRIMVEC
 2.00000000 0.00000000 0.00000000
 0.00000000 2.00000000 0.00000000
 0.00000000 0.00000000 2.00000000
PRIMCOORD
1 1
Ne 0.00000000 0.00000000 0.00000000
BEGIN_BLOCK_DATAGRID_3D
density_3d
BEGIN_DATAGRID_3D_density
2 2 2
0.00000000 0.00000000 0.00000000
2.00000000 0.00000000 0.00000000
0.00000000 2.00000000 0.00000000
0.00000000 0.00000000 2.00000000
0.0 1.0
2.0 3.0
4.0 5.0
6.0 7.0
END_DATAGRID_3D
END_BLOCK_DATAGRID_3D
